    1C
    1UUSER                                                              
    1UDATE              15.march.2023                                   
    1UTIME              16:32:33                                        
    1UHOST                                                              
    1UPGM               CalculiX                                        
    1UVERSION           Version 2.20                             
    1UCOMPILETIME       Sun Jul 31 18:08:37 CEST 2022                    
    1UDIR                                                               
    1UDBN                                                               
    1UMAT    1SOFT                                                      
    1UMAT    2HARD                                                      
    1UMAT    3PART                                                      
    2C                          3304                                     1
 -1         1 0.00000E+00 0.00000E+00 0.00000E+00
 -1         2 1.00000E+00 0.00000E+00 0.00000E+00
 -1         3 0.00000E+00 1.66667E-02 0.00000E+00
 -1         4 1.00000E+00 1.66667E-02 0.00000E+00
 -1         5 0.00000E+00 3.33333E-02 0.00000E+00
 -1         6 1.00000E+00 3.33333E-02 0.00000E+00
 -1         7 0.00000E+00 5.00000E-02 0.00000E+00
 -1         8 1.00000E+00 5.00000E-02 0.00000E+00
 -1         9 0.00000E+00 6.66667E-02 0.00000E+00
 -1        10 1.00000E+00 6.66667E-02 0.00000E+00
 -1        11 0.00000E+00 8.33333E-02 0.00000E+00
 -1        12 1.00000E+00 8.33333E-02 0.00000E+00
 -1        13 0.00000E+00 1.00000E-01 0.00000E+00
 -1        14 1.00000E+00 1.00000E-01 0.00000E+00
 -1        15 0.00000E+00 0.00000E+00 1.66667E-02
 -1        16 1.00000E+00 0.00000E+00 1.66667E-02
 -1        17 0.00000E+00 1.66667E-02 1.66667E-02
 -1        18 1.00000E+00 1.66667E-02 1.66667E-02
 -1        19 0.00000E+00 3.33333E-02 1.66667E-02
 -1        20 1.00000E+00 3.33333E-02 1.66667E-02
 -1        21 0.00000E+00 5.00000E-02 1.66667E-02
 -1        22 1.00000E+00 5.00000E-02 1.66667E-02
 -1        23 0.00000E+00 6.66667E-02 1.66667E-02
 -1        24 1.00000E+00 6.66667E-02 1.66667E-02
 -1        25 0.00000E+00 8.33333E-02 1.66667E-02
 -1        26 1.00000E+00 8.33333E-02 1.66667E-02
 -1        27 0.00000E+00 1.00000E-01 1.66667E-02
 -1        28 1.00000E+00 1.00000E-01 1.66667E-02
 -1        29 0.00000E+00 0.00000E+00 3.33333E-02
 -1        30 1.00000E+00 0.00000E+00 3.33333E-02
 -1        31 0.00000E+00 1.66667E-02 3.33333E-02
 -1        32 1.00000E+00 1.66667E-02 3.33333E-02
 -1        33 0.00000E+00 3.33333E-02 3.33333E-02
 -1        34 1.00000E+00 3.33333E-02 3.33333E-02
 -1        35 0.00000E+00 5.00000E-02 3.33333E-02
 -1        36 1.00000E+00 5.00000E-02 3.33333E-02
 -1        37 0.00000E+00 6.66667E-02 3.33333E-02
 -1        38 1.00000E+00 6.66667E-02 3.33333E-02
 -1        39 0.00000E+00 8.33333E-02 3.33333E-02
 -1        40 1.00000E+00 8.33333E-02 3.33333E-02
 -1        41 0.00000E+00 1.00000E-01 3.33333E-02
 -1        42 1.00000E+00 1.00000E-01 3.33333E-02
 -1        43 0.00000E+00 0.00000E+00 5.00000E-02
 -1        44 1.00000E+00 0.00000E+00 5.00000E-02
 -1        45 0.00000E+00 1.66667E-02 5.00000E-02
 -1        46 1.00000E+00 1.66667E-02 5.00000E-02
 -1        47 0.00000E+00 3.33333E-02 5.00000E-02
 -1        48 1.00000E+00 3.33333E-02 5.00000E-02
 -1        49 0.00000E+00 5.00000E-02 5.00000E-02
 -1        50 1.00000E+00 5.00000E-02 5.00000E-02
 -1        51 0.00000E+00 6.66667E-02 5.00000E-02
 -1        52 1.00000E+00 6.66667E-02 5.00000E-02
 -1        53 0.00000E+00 8.33333E-02 5.00000E-02
 -1        54 1.00000E+00 8.33333E-02 5.00000E-02
 -1        55 0.00000E+00 1.00000E-01 5.00000E-02
 -1        56 1.00000E+00 1.00000E-01 5.00000E-02
 -1        57 0.00000E+00 0.00000E+00 6.66667E-02
 -1        58 1.00000E+00 0.00000E+00 6.66667E-02
 -1        59 0.00000E+00 1.66667E-02 6.66667E-02
 -1        60 1.00000E+00 1.66667E-02 6.66667E-02
 -1        61 0.00000E+00 3.33333E-02 6.66667E-02
 -1        62 1.00000E+00 3.33333E-02 6.66667E-02
 -1        63 0.00000E+00 5.00000E-02 6.66667E-02
 -1        64 1.00000E+00 5.00000E-02 6.66667E-02
 -1        65 0.00000E+00 6.66667E-02 6.66667E-02
 -1        66 1.00000E+00 6.66667E-02 6.66667E-02
 -1        67 0.00000E+00 8.33333E-02 6.66667E-02
 -1        68 1.00000E+00 8.33333E-02 6.66667E-02
 -1        69 0.00000E+00 1.00000E-01 6.66667E-02
 -1        70 1.00000E+00 1.00000E-01 6.66667E-02
 -1        71 0.00000E+00 0.00000E+00 8.33333E-02
 -1        72 1.00000E+00 0.00000E+00 8.33333E-02
 -1        73 0.00000E+00 1.66667E-02 8.33333E-02
 -1        74 1.00000E+00 1.66667E-02 8.33333E-02
 -1        75 0.00000E+00 3.33333E-02 8.33333E-02
 -1        76 1.00000E+00 3.33333E-02 8.33333E-02
 -1        77 0.00000E+00 5.00000E-02 8.33333E-02
 -1        78 1.00000E+00 5.00000E-02 8.33333E-02
 -1        79 0.00000E+00 6.66667E-02 8.33333E-02
 -1        80 1.00000E+00 6.66667E-02 8.33333E-02
 -1        81 0.00000E+00 8.33333E-02 8.33333E-02
 -1        82 1.00000E+00 8.33333E-02 8.33333E-02
 -1        83 0.00000E+00 1.00000E-01 8.33333E-02
 -1        84 1.00000E+00 1.00000E-01 8.33333E-02
 -1        85 0.00000E+00 0.00000E+00 1.00000E-01
 -1        86 1.00000E+00 0.00000E+00 1.00000E-01
 -1        87 0.00000E+00 1.66667E-02 1.00000E-01
 -1        88 1.00000E+00 1.66667E-02 1.00000E-01
 -1        89 0.00000E+00 3.33333E-02 1.00000E-01
 -1        90 1.00000E+00 3.33333E-02 1.00000E-01
 -1        91 0.00000E+00 5.00000E-02 1.00000E-01
 -1        92 1.00000E+00 5.00000E-02 1.00000E-01
 -1        93 0.00000E+00 6.66667E-02 1.00000E-01
 -1        94 1.00000E+00 6.66667E-02 1.00000E-01
 -1        95 0.00000E+00 8.33333E-02 1.00000E-01
 -1        96 1.00000E+00 8.33333E-02 1.00000E-01
 -1        97 0.00000E+00 1.00000E-01 1.00000E-01
 -1        98 1.00000E+00 1.00000E-01 1.00000E-01
 -1        99 5.00000E-02 0.00000E+00 0.00000E+00
 -1       100 5.00000E-02 1.00000E-01 0.00000E+00
 -1       101 1.00000E-01 0.00000E+00 0.00000E+00
 -1       102 1.00000E-01 1.00000E-01 0.00000E+00
 -1       103 1.50000E-01 0.00000E+00 0.00000E+00
 -1       104 1.50000E-01 1.00000E-01 0.00000E+00
 -1       105 2.00000E-01 0.00000E+00 0.00000E+00
 -1       106 2.00000E-01 1.00000E-01 0.00000E+00
 -1       107 2.50000E-01 0.00000E+00 0.00000E+00
 -1       108 2.50000E-01 1.00000E-01 0.00000E+00
 -1       109 3.00000E-01 0.00000E+00 0.00000E+00
 -1       110 3.00000E-01 1.00000E-01 0.00000E+00
 -1       111 3.50000E-01 0.00000E+00 0.00000E+00
 -1       112 3.50000E-01 1.00000E-01 0.00000E+00
 -1       113 4.00000E-01 0.00000E+00 0.00000E+00
 -1       114 4.00000E-01 1.00000E-01 0.00000E+00
 -1       115 4.50000E-01 0.00000E+00 0.00000E+00
 -1       116 4.50000E-01 1.00000E-01 0.00000E+00
 -1       117 5.00000E-01 0.00000E+00 0.00000E+00
 -1       118 5.00000E-01 1.00000E-01 0.00000E+00
 -1       119 5.50000E-01 0.00000E+00 0.00000E+00
 -1       120 5.50000E-01 1.00000E-01 0.00000E+00
 -1       121 6.00000E-01 0.00000E+00 0.00000E+00
 -1       122 6.00000E-01 1.00000E-01 0.00000E+00
 -1       123 6.50000E-01 0.00000E+00 0.00000E+00
 -1       124 6.50000E-01 1.00000E-01 0.00000E+00
 -1       125 7.00000E-01 0.00000E+00 0.00000E+00
 -1       126 7.00000E-01 1.00000E-01 0.00000E+00
 -1       127 7.50000E-01 0.00000E+00 0.00000E+00
 -1       128 7.50000E-01 1.00000E-01 0.00000E+00
 -1       129 8.00000E-01 0.00000E+00 0.00000E+00
 -1       130 8.00000E-01 1.00000E-01 0.00000E+00
 -1       131 8.50000E-01 0.00000E+00 0.00000E+00
 -1       132 8.50000E-01 1.00000E-01 0.00000E+00
 -1       133 9.00000E-01 0.00000E+00 0.00000E+00
 -1       134 9.00000E-01 1.00000E-01 0.00000E+00
 -1       135 9.50000E-01 0.00000E+00 0.00000E+00
 -1       136 9.50000E-01 1.00000E-01 0.00000E+00
 -1       137 5.00000E-02 0.00000E+00 1.66667E-02
 -1       138 5.00000E-02 1.00000E-01 1.66667E-02
 -1       139 1.00000E-01 0.00000E+00 1.66667E-02
 -1       140 1.00000E-01 1.00000E-01 1.66667E-02
 -1       141 1.50000E-01 0.00000E+00 1.66667E-02
 -1       142 1.50000E-01 1.00000E-01 1.66667E-02
 -1       143 2.00000E-01 0.00000E+00 1.66667E-02
 -1       144 2.00000E-01 1.00000E-01 1.66667E-02
 -1       145 2.50000E-01 0.00000E+00 1.66667E-02
 -1       146 2.50000E-01 1.00000E-01 1.66667E-02
 -1       147 3.00000E-01 0.00000E+00 1.66667E-02
 -1       148 3.00000E-01 1.00000E-01 1.66667E-02
 -1       149 3.50000E-01 0.00000E+00 1.66667E-02
 -1       150 3.50000E-01 1.00000E-01 1.66667E-02
 -1       151 4.00000E-01 0.00000E+00 1.66667E-02
 -1       152 4.00000E-01 1.00000E-01 1.66667E-02
 -1       153 4.50000E-01 0.00000E+00 1.66667E-02
 -1       154 4.50000E-01 1.00000E-01 1.66667E-02
 -1       155 5.00000E-01 0.00000E+00 1.66667E-02
 -1       156 5.00000E-01 1.00000E-01 1.66667E-02
 -1       157 5.50000E-01 0.00000E+00 1.66667E-02
 -1       158 5.50000E-01 1.00000E-01 1.66667E-02
 -1       159 6.00000E-01 0.00000E+00 1.66667E-02
 -1       160 6.00000E-01 1.00000E-01 1.66667E-02
 -1       161 6.50000E-01 0.00000E+00 1.66667E-02
 -1       162 6.50000E-01 1.00000E-01 1.66667E-02
 -1       163 7.00000E-01 0.00000E+00 1.66667E-02
 -1       164 7.00000E-01 1.00000E-01 1.66667E-02
 -1       165 7.50000E-01 0.00000E+00 1.66667E-02
 -1       166 7.50000E-01 1.00000E-01 1.66667E-02
 -1       167 8.00000E-01 0.00000E+00 1.66667E-02
 -1       168 8.00000E-01 1.00000E-01 1.66667E-02
 -1       169 8.50000E-01 0.00000E+00 1.66667E-02
 -1       170 8.50000E-01 1.00000E-01 1.66667E-02
 -1       171 9.00000E-01 0.00000E+00 1.66667E-02
 -1       172 9.00000E-01 1.00000E-01 1.66667E-02
 -1       173 9.50000E-01 0.00000E+00 1.66667E-02
 -1       174 9.50000E-01 1.00000E-01 1.66667E-02
 -1       175 5.00000E-02 0.00000E+00 3.33333E-02
 -1       176 5.00000E-02 1.00000E-01 3.33333E-02
 -1       177 1.00000E-01 0.00000E+00 3.33333E-02
 -1       178 1.00000E-01 1.00000E-01 3.33333E-02
 -1       179 1.50000E-01 0.00000E+00 3.33333E-02
 -1       180 1.50000E-01 1.00000E-01 3.33333E-02
 -1       181 2.00000E-01 0.00000E+00 3.33333E-02
 -1       182 2.00000E-01 1.00000E-01 3.33333E-02
 -1       183 2.50000E-01 0.00000E+00 3.33333E-02
 -1       184 2.50000E-01 1.00000E-01 3.33333E-02
 -1       185 3.00000E-01 0.00000E+00 3.33333E-02
 -1       186 3.00000E-01 1.00000E-01 3.33333E-02
 -1       187 3.50000E-01 0.00000E+00 3.33333E-02
 -1       188 3.50000E-01 1.00000E-01 3.33333E-02
 -1       189 4.00000E-01 0.00000E+00 3.33333E-02
 -1       190 4.00000E-01 1.00000E-01 3.33333E-02
 -1       191 4.50000E-01 0.00000E+00 3.33333E-02
 -1       192 4.50000E-01 1.00000E-01 3.33333E-02
 -1       193 5.00000E-01 0.00000E+00 3.33333E-02
 -1       194 5.00000E-01 1.00000E-01 3.33333E-02
 -1       195 5.50000E-01 0.00000E+00 3.33333E-02
 -1       196 5.50000E-01 1.00000E-01 3.33333E-02
 -1       197 6.00000E-01 0.00000E+00 3.33333E-02
 -1       198 6.00000E-01 1.00000E-01 3.33333E-02
 -1       199 6.50000E-01 0.00000E+00 3.33333E-02
 -1       200 6.50000E-01 1.00000E-01 3.33333E-02
 -1       201 7.00000E-01 0.00000E+00 3.33333E-02
 -1       202 7.00000E-01 1.00000E-01 3.33333E-02
 -1       203 7.50000E-01 0.00000E+00 3.33333E-02
 -1       204 7.50000E-01 1.00000E-01 3.33333E-02
 -1       205 8.00000E-01 0.00000E+00 3.33333E-02
 -1       206 8.00000E-01 1.00000E-01 3.33333E-02
 -1       207 8.50000E-01 0.00000E+00 3.33333E-02
 -1       208 8.50000E-01 1.00000E-01 3.33333E-02
 -1       209 9.00000E-01 0.00000E+00 3.33333E-02
 -1       210 9.00000E-01 1.00000E-01 3.33333E-02
 -1       211 9.50000E-01 0.00000E+00 3.33333E-02
 -1       212 9.50000E-01 1.00000E-01 3.33333E-02
 -1       213 5.00000E-02 0.00000E+00 5.00000E-02
 -1       214 5.00000E-02 1.00000E-01 5.00000E-02
 -1       215 1.00000E-01 0.00000E+00 5.00000E-02
 -1       216 1.00000E-01 1.00000E-01 5.00000E-02
 -1       217 1.50000E-01 0.00000E+00 5.00000E-02
 -1       218 1.50000E-01 1.00000E-01 5.00000E-02
 -1       219 2.00000E-01 0.00000E+00 5.00000E-02
 -1       220 2.00000E-01 1.00000E-01 5.00000E-02
 -1       221 2.50000E-01 0.00000E+00 5.00000E-02
 -1       222 2.50000E-01 1.00000E-01 5.00000E-02
 -1       223 3.00000E-01 0.00000E+00 5.00000E-02
 -1       224 3.00000E-01 1.00000E-01 5.00000E-02
 -1       225 3.50000E-01 0.00000E+00 5.00000E-02
 -1       226 3.50000E-01 1.00000E-01 5.00000E-02
 -1       227 4.00000E-01 0.00000E+00 5.00000E-02
 -1       228 4.00000E-01 1.00000E-01 5.00000E-02
 -1       229 4.50000E-01 0.00000E+00 5.00000E-02
 -1       230 4.50000E-01 1.00000E-01 5.00000E-02
 -1       231 5.00000E-01 0.00000E+00 5.00000E-02
 -1       232 5.00000E-01 1.00000E-01 5.00000E-02
 -1       233 5.50000E-01 0.00000E+00 5.00000E-02
 -1       234 5.50000E-01 1.00000E-01 5.00000E-02
 -1       235 6.00000E-01 0.00000E+00 5.00000E-02
 -1       236 6.00000E-01 1.00000E-01 5.00000E-02
 -1       237 6.50000E-01 0.00000E+00 5.00000E-02
 -1       238 6.50000E-01 1.00000E-01 5.00000E-02
 -1       239 7.00000E-01 0.00000E+00 5.00000E-02
 -1       240 7.00000E-01 1.00000E-01 5.00000E-02
 -1       241 7.50000E-01 0.00000E+00 5.00000E-02
 -1       242 7.50000E-01 1.00000E-01 5.00000E-02
 -1       243 8.00000E-01 0.00000E+00 5.00000E-02
 -1       244 8.00000E-01 1.00000E-01 5.00000E-02
 -1       245 8.50000E-01 0.00000E+00 5.00000E-02
 -1       246 8.50000E-01 1.00000E-01 5.00000E-02
 -1       247 9.00000E-01 0.00000E+00 5.00000E-02
 -1       248 9.00000E-01 1.00000E-01 5.00000E-02
 -1       249 9.50000E-01 0.00000E+00 5.00000E-02
 -1       250 9.50000E-01 1.00000E-01 5.00000E-02
 -1       251 5.00000E-02 0.00000E+00 6.66667E-02
 -1       252 5.00000E-02 1.00000E-01 6.66667E-02
 -1       253 1.00000E-01 0.00000E+00 6.66667E-02
 -1       254 1.00000E-01 1.00000E-01 6.66667E-02
 -1       255 1.50000E-01 0.00000E+00 6.66667E-02
 -1       256 1.50000E-01 1.00000E-01 6.66667E-02
 -1       257 2.00000E-01 0.00000E+00 6.66667E-02
 -1       258 2.00000E-01 1.00000E-01 6.66667E-02
 -1       259 2.50000E-01 0.00000E+00 6.66667E-02
 -1       260 2.50000E-01 1.00000E-01 6.66667E-02
 -1       261 3.00000E-01 0.00000E+00 6.66667E-02
 -1       262 3.00000E-01 1.00000E-01 6.66667E-02
 -1       263 3.50000E-01 0.00000E+00 6.66667E-02
 -1       264 3.50000E-01 1.00000E-01 6.66667E-02
 -1       265 4.00000E-01 0.00000E+00 6.66667E-02
 -1       266 4.00000E-01 1.00000E-01 6.66667E-02
 -1       267 4.50000E-01 0.00000E+00 6.66667E-02
 -1       268 4.50000E-01 1.00000E-01 6.66667E-02
 -1       269 5.00000E-01 0.00000E+00 6.66667E-02
 -1       270 5.00000E-01 1.00000E-01 6.66667E-02
 -1       271 5.50000E-01 0.00000E+00 6.66667E-02
 -1       272 5.50000E-01 1.00000E-01 6.66667E-02
 -1       273 6.00000E-01 0.00000E+00 6.66667E-02
 -1       274 6.00000E-01 1.00000E-01 6.66667E-02
 -1       275 6.50000E-01 0.00000E+00 6.66667E-02
 -1       276 6.50000E-01 1.00000E-01 6.66667E-02
 -1       277 7.00000E-01 0.00000E+00 6.66667E-02
 -1       278 7.00000E-01 1.00000E-01 6.66667E-02
 -1       279 7.50000E-01 0.00000E+00 6.66667E-02
 -1       280 7.50000E-01 1.00000E-01 6.66667E-02
 -1       281 8.00000E-01 0.00000E+00 6.66667E-02
 -1       282 8.00000E-01 1.00000E-01 6.66667E-02
 -1       283 8.50000E-01 0.00000E+00 6.66667E-02
 -1       284 8.50000E-01 1.00000E-01 6.66667E-02
 -1       285 9.00000E-01 0.00000E+00 6.66667E-02
 -1       286 9.00000E-01 1.00000E-01 6.66667E-02
 -1       287 9.50000E-01 0.00000E+00 6.66667E-02
 -1       288 9.50000E-01 1.00000E-01 6.66667E-02
 -1       289 5.00000E-02 0.00000E+00 8.33333E-02
 -1       290 5.00000E-02 1.00000E-01 8.33333E-02
 -1       291 1.00000E-01 0.00000E+00 8.33333E-02
 -1       292 1.00000E-01 1.00000E-01 8.33333E-02
 -1       293 1.50000E-01 0.00000E+00 8.33333E-02
 -1       294 1.50000E-01 1.00000E-01 8.33333E-02
 -1       295 2.00000E-01 0.00000E+00 8.33333E-02
 -1       296 2.00000E-01 1.00000E-01 8.33333E-02
 -1       297 2.50000E-01 0.00000E+00 8.33333E-02
 -1       298 2.50000E-01 1.00000E-01 8.33333E-02
 -1       299 3.00000E-01 0.00000E+00 8.33333E-02
 -1       300 3.00000E-01 1.00000E-01 8.33333E-02
 -1       301 3.50000E-01 0.00000E+00 8.33333E-02
 -1       302 3.50000E-01 1.00000E-01 8.33333E-02
 -1       303 4.00000E-01 0.00000E+00 8.33333E-02
 -1       304 4.00000E-01 1.00000E-01 8.33333E-02
 -1       305 4.50000E-01 0.00000E+00 8.33333E-02
 -1       306 4.50000E-01 1.00000E-01 8.33333E-02
 -1       307 5.00000E-01 0.00000E+00 8.33333E-02
 -1       308 5.00000E-01 1.00000E-01 8.33333E-02
 -1       309 5.50000E-01 0.00000E+00 8.33333E-02
 -1       310 5.50000E-01 1.00000E-01 8.33333E-02
 -1       311 6.00000E-01 0.00000E+00 8.33333E-02
 -1       312 6.00000E-01 1.00000E-01 8.33333E-02
 -1       313 6.50000E-01 0.00000E+00 8.33333E-02
 -1       314 6.50000E-01 1.00000E-01 8.33333E-02
 -1       315 7.00000E-01 0.00000E+00 8.33333E-02
 -1       316 7.00000E-01 1.00000E-01 8.33333E-02
 -1       317 7.50000E-01 0.00000E+00 8.33333E-02
 -1       318 7.50000E-01 1.00000E-01 8.33333E-02
 -1       319 8.00000E-01 0.00000E+00 8.33333E-02
 -1       320 8.00000E-01 1.00000E-01 8.33333E-02
 -1       321 8.50000E-01 0.00000E+00 8.33333E-02
 -1       322 8.50000E-01 1.00000E-01 8.33333E-02
 -1       323 9.00000E-01 0.00000E+00 8.33333E-02
 -1       324 9.00000E-01 1.00000E-01 8.33333E-02
 -1       325 9.50000E-01 0.00000E+00 8.33333E-02
 -1       326 9.50000E-01 1.00000E-01 8.33333E-02
 -1       327 5.00000E-02 0.00000E+00 1.00000E-01
 -1       328 5.00000E-02 1.00000E-01 1.00000E-01
 -1       329 1.00000E-01 0.00000E+00 1.00000E-01
 -1       330 1.00000E-01 1.00000E-01 1.00000E-01
 -1       331 1.50000E-01 0.00000E+00 1.00000E-01
 -1       332 1.50000E-01 1.00000E-01 1.00000E-01
 -1       333 2.00000E-01 0.00000E+00 1.00000E-01
 -1       334 2.00000E-01 1.00000E-01 1.00000E-01
 -1       335 2.50000E-01 0.00000E+00 1.00000E-01
 -1       336 2.50000E-01 1.00000E-01 1.00000E-01
 -1       337 3.00000E-01 0.00000E+00 1.00000E-01
 -1       338 3.00000E-01 1.00000E-01 1.00000E-01
 -1       339 3.50000E-01 0.00000E+00 1.00000E-01
 -1       340 3.50000E-01 1.00000E-01 1.00000E-01
 -1       341 4.00000E-01 0.00000E+00 1.00000E-01
 -1       342 4.00000E-01 1.00000E-01 1.00000E-01
 -1       343 4.50000E-01 0.00000E+00 1.00000E-01
 -1       344 4.50000E-01 1.00000E-01 1.00000E-01
 -1       345 5.00000E-01 0.00000E+00 1.00000E-01
 -1       346 5.00000E-01 1.00000E-01 1.00000E-01
 -1       347 5.50000E-01 0.00000E+00 1.00000E-01
 -1       348 5.50000E-01 1.00000E-01 1.00000E-01
 -1       349 6.00000E-01 0.00000E+00 1.00000E-01
 -1       350 6.00000E-01 1.00000E-01 1.00000E-01
 -1       351 6.50000E-01 0.00000E+00 1.00000E-01
 -1       352 6.50000E-01 1.00000E-01 1.00000E-01
 -1       353 7.00000E-01 0.00000E+00 1.00000E-01
 -1       354 7.00000E-01 1.00000E-01 1.00000E-01
 -1       355 7.50000E-01 0.00000E+00 1.00000E-01
 -1       356 7.50000E-01 1.00000E-01 1.00000E-01
 -1       357 8.00000E-01 0.00000E+00 1.00000E-01
 -1       358 8.00000E-01 1.00000E-01 1.00000E-01
 -1       359 8.50000E-01 0.00000E+00 1.00000E-01
 -1       360 8.50000E-01 1.00000E-01 1.00000E-01
 -1       361 9.00000E-01 0.00000E+00 1.00000E-01
 -1       362 9.00000E-01 1.00000E-01 1.00000E-01
 -1       363 9.50000E-01 0.00000E+00 1.00000E-01
 -1       364 9.50000E-01 1.00000E-01 1.00000E-01
 -1       365 5.00000E-02 1.66667E-02 0.00000E+00
 -1       366 5.00000E-02 1.66667E-02 1.00000E-01
 -1       367 1.00000E-01 1.66667E-02 0.00000E+00
 -1       368 1.00000E-01 1.66667E-02 1.00000E-01
 -1       369 1.50000E-01 1.66667E-02 0.00000E+00
 -1       370 1.50000E-01 1.66667E-02 1.00000E-01
 -1       371 2.00000E-01 1.66667E-02 0.00000E+00
 -1       372 2.00000E-01 1.66667E-02 1.00000E-01
 -1       373 2.50000E-01 1.66667E-02 0.00000E+00
 -1       374 2.50000E-01 1.66667E-02 1.00000E-01
 -1       375 3.00000E-01 1.66667E-02 0.00000E+00
 -1       376 3.00000E-01 1.66667E-02 1.00000E-01
 -1       377 3.50000E-01 1.66667E-02 0.00000E+00
 -1       378 3.50000E-01 1.66667E-02 1.00000E-01
 -1       379 4.00000E-01 1.66667E-02 0.00000E+00
 -1       380 4.00000E-01 1.66667E-02 1.00000E-01
 -1       381 4.50000E-01 1.66667E-02 0.00000E+00
 -1       382 4.50000E-01 1.66667E-02 1.00000E-01
 -1       383 5.00000E-01 1.66667E-02 0.00000E+00
 -1       384 5.00000E-01 1.66667E-02 1.00000E-01
 -1       385 5.50000E-01 1.66667E-02 0.00000E+00
 -1       386 5.50000E-01 1.66667E-02 1.00000E-01
 -1       387 6.00000E-01 1.66667E-02 0.00000E+00
 -1       388 6.00000E-01 1.66667E-02 1.00000E-01
 -1       389 6.50000E-01 1.66667E-02 0.00000E+00
 -1       390 6.50000E-01 1.66667E-02 1.00000E-01
 -1       391 7.00000E-01 1.66667E-02 0.00000E+00
 -1       392 7.00000E-01 1.66667E-02 1.00000E-01
 -1       393 7.50000E-01 1.66667E-02 0.00000E+00
 -1       394 7.50000E-01 1.66667E-02 1.00000E-01
 -1       395 8.00000E-01 1.66667E-02 0.00000E+00
 -1       396 8.00000E-01 1.66667E-02 1.00000E-01
 -1       397 8.50000E-01 1.66667E-02 0.00000E+00
 -1       398 8.50000E-01 1.66667E-02 1.00000E-01
 -1       399 9.00000E-01 1.66667E-02 0.00000E+00
 -1       400 9.00000E-01 1.66667E-02 1.00000E-01
 -1       401 9.50000E-01 1.66667E-02 0.00000E+00
 -1       402 9.50000E-01 1.66667E-02 1.00000E-01
 -1       403 5.00000E-02 3.33333E-02 0.00000E+00
 -1       404 5.00000E-02 3.33333E-02 1.00000E-01
 -1       405 1.00000E-01 3.33333E-02 0.00000E+00
 -1       406 1.00000E-01 3.33333E-02 1.00000E-01
 -1       407 1.50000E-01 3.33333E-02 0.00000E+00
 -1       408 1.50000E-01 3.33333E-02 1.00000E-01
 -1       409 2.00000E-01 3.33333E-02 0.00000E+00
 -1       410 2.00000E-01 3.33333E-02 1.00000E-01
 -1       411 2.50000E-01 3.33333E-02 0.00000E+00
 -1       412 2.50000E-01 3.33333E-02 1.00000E-01
 -1       413 3.00000E-01 3.33333E-02 0.00000E+00
 -1       414 3.00000E-01 3.33333E-02 1.00000E-01
 -1       415 3.50000E-01 3.33333E-02 0.00000E+00
 -1       416 3.50000E-01 3.33333E-02 1.00000E-01
 -1       417 4.00000E-01 3.33333E-02 0.00000E+00
 -1       418 4.00000E-01 3.33333E-02 1.00000E-01
 -1       419 4.50000E-01 3.33333E-02 0.00000E+00
 -1       420 4.50000E-01 3.33333E-02 1.00000E-01
 -1       421 5.00000E-01 3.33333E-02 0.00000E+00
 -1       422 5.00000E-01 3.33333E-02 1.00000E-01
 -1       423 5.50000E-01 3.33333E-02 0.00000E+00
 -1       424 5.50000E-01 3.33333E-02 1.00000E-01
 -1       425 6.00000E-01 3.33333E-02 0.00000E+00
 -1       426 6.00000E-01 3.33333E-02 1.00000E-01
 -1       427 6.50000E-01 3.33333E-02 0.00000E+00
 -1       428 6.50000E-01 3.33333E-02 1.00000E-01
 -1       429 7.00000E-01 3.33333E-02 0.00000E+00
 -1       430 7.00000E-01 3.33333E-02 1.00000E-01
 -1       431 7.50000E-01 3.33333E-02 0.00000E+00
 -1       432 7.50000E-01 3.33333E-02 1.00000E-01
 -1       433 8.00000E-01 3.33333E-02 0.00000E+00
 -1       434 8.00000E-01 3.33333E-02 1.00000E-01
 -1       435 8.50000E-01 3.33333E-02 0.00000E+00
 -1       436 8.50000E-01 3.33333E-02 1.00000E-01
 -1       437 9.00000E-01 3.33333E-02 0.00000E+00
 -1       438 9.00000E-01 3.33333E-02 1.00000E-01
 -1       439 9.50000E-01 3.33333E-02 0.00000E+00
 -1       440 9.50000E-01 3.33333E-02 1.00000E-01
 -1       441 5.00000E-02 5.00000E-02 0.00000E+00
 -1       442 5.00000E-02 5.00000E-02 1.00000E-01
 -1       443 1.00000E-01 5.00000E-02 0.00000E+00
 -1       444 1.00000E-01 5.00000E-02 1.00000E-01
 -1       445 1.50000E-01 5.00000E-02 0.00000E+00
 -1       446 1.50000E-01 5.00000E-02 1.00000E-01
 -1       447 2.00000E-01 5.00000E-02 0.00000E+00
 -1       448 2.00000E-01 5.00000E-02 1.00000E-01
 -1       449 2.50000E-01 5.00000E-02 0.00000E+00
 -1       450 2.50000E-01 5.00000E-02 1.00000E-01
 -1       451 3.00000E-01 5.00000E-02 0.00000E+00
 -1       452 3.00000E-01 5.00000E-02 1.00000E-01
 -1       453 3.50000E-01 5.00000E-02 0.00000E+00
 -1       454 3.50000E-01 5.00000E-02 1.00000E-01
 -1       455 4.00000E-01 5.00000E-02 0.00000E+00
 -1       456 4.00000E-01 5.00000E-02 1.00000E-01
 -1       457 4.50000E-01 5.00000E-02 0.00000E+00
 -1       458 4.50000E-01 5.00000E-02 1.00000E-01
 -1       459 5.00000E-01 5.00000E-02 0.00000E+00
 -1       460 5.00000E-01 5.00000E-02 1.00000E-01
 -1       461 5.50000E-01 5.00000E-02 0.00000E+00
 -1       462 5.50000E-01 5.00000E-02 1.00000E-01
 -1       463 6.00000E-01 5.00000E-02 0.00000E+00
 -1       464 6.00000E-01 5.00000E-02 1.00000E-01
 -1       465 6.50000E-01 5.00000E-02 0.00000E+00
 -1       466 6.50000E-01 5.00000E-02 1.00000E-01
 -1       467 7.00000E-01 5.00000E-02 0.00000E+00
 -1       468 7.00000E-01 5.00000E-02 1.00000E-01
 -1       469 7.50000E-01 5.00000E-02 0.00000E+00
 -1       470 7.50000E-01 5.00000E-02 1.00000E-01
 -1       471 8.00000E-01 5.00000E-02 0.00000E+00
 -1       472 8.00000E-01 5.00000E-02 1.00000E-01
 -1       473 8.50000E-01 5.00000E-02 0.00000E+00
 -1       474 8.50000E-01 5.00000E-02 1.00000E-01
 -1       475 9.00000E-01 5.00000E-02 0.00000E+00
 -1       476 9.00000E-01 5.00000E-02 1.00000E-01
 -1       477 9.50000E-01 5.00000E-02 0.00000E+00
 -1       478 9.50000E-01 5.00000E-02 1.00000E-01
 -1       479 5.00000E-02 6.66667E-02 0.00000E+00
 -1       480 5.00000E-02 6.66667E-02 1.00000E-01
 -1       481 1.00000E-01 6.66667E-02 0.00000E+00
 -1       482 1.00000E-01 6.66667E-02 1.00000E-01
 -1       483 1.50000E-01 6.66667E-02 0.00000E+00
 -1       484 1.50000E-01 6.66667E-02 1.00000E-01
 -1       485 2.00000E-01 6.66667E-02 0.00000E+00
 -1       486 2.00000E-01 6.66667E-02 1.00000E-01
 -1       487 2.50000E-01 6.66667E-02 0.00000E+00
 -1       488 2.50000E-01 6.66667E-02 1.00000E-01
 -1       489 3.00000E-01 6.66667E-02 0.00000E+00
 -1       490 3.00000E-01 6.66667E-02 1.00000E-01
 -1       491 3.50000E-01 6.66667E-02 0.00000E+00
 -1       492 3.50000E-01 6.66667E-02 1.00000E-01
 -1       493 4.00000E-01 6.66667E-02 0.00000E+00
 -1       494 4.00000E-01 6.66667E-02 1.00000E-01
 -1       495 4.50000E-01 6.66667E-02 0.00000E+00
 -1       496 4.50000E-01 6.66667E-02 1.00000E-01
 -1       497 5.00000E-01 6.66667E-02 0.00000E+00
 -1       498 5.00000E-01 6.66667E-02 1.00000E-01
 -1       499 5.50000E-01 6.66667E-02 0.00000E+00
 -1       500 5.50000E-01 6.66667E-02 1.00000E-01
 -1       501 6.00000E-01 6.66667E-02 0.00000E+00
 -1       502 6.00000E-01 6.66667E-02 1.00000E-01
 -1       503 6.50000E-01 6.66667E-02 0.00000E+00
 -1       504 6.50000E-01 6.66667E-02 1.00000E-01
 -1       505 7.00000E-01 6.66667E-02 0.00000E+00
 -1       506 7.00000E-01 6.66667E-02 1.00000E-01
 -1       507 7.50000E-01 6.66667E-02 0.00000E+00
 -1       508 7.50000E-01 6.66667E-02 1.00000E-01
 -1       509 8.00000E-01 6.66667E-02 0.00000E+00
 -1       510 8.00000E-01 6.66667E-02 1.00000E-01
 -1       511 8.50000E-01 6.66667E-02 0.00000E+00
 -1       512 8.50000E-01 6.66667E-02 1.00000E-01
 -1       513 9.00000E-01 6.66667E-02 0.00000E+00
 -1       514 9.00000E-01 6.66667E-02 1.00000E-01
 -1       515 9.50000E-01 6.66667E-02 0.00000E+00
 -1       516 9.50000E-01 6.66667E-02 1.00000E-01
 -1       517 5.00000E-02 8.33333E-02 0.00000E+00
 -1       518 5.00000E-02 8.33333E-02 1.00000E-01
 -1       519 1.00000E-01 8.33333E-02 0.00000E+00
 -1       520 1.00000E-01 8.33333E-02 1.00000E-01
 -1       521 1.50000E-01 8.33333E-02 0.00000E+00
 -1       522 1.50000E-01 8.33333E-02 1.00000E-01
 -1       523 2.00000E-01 8.33333E-02 0.00000E+00
 -1       524 2.00000E-01 8.33333E-02 1.00000E-01
 -1       525 2.50000E-01 8.33333E-02 0.00000E+00
 -1       526 2.50000E-01 8.33333E-02 1.00000E-01
 -1       527 3.00000E-01 8.33333E-02 0.00000E+00
 -1       528 3.00000E-01 8.33333E-02 1.00000E-01
 -1       529 3.50000E-01 8.33333E-02 0.00000E+00
 -1       530 3.50000E-01 8.33333E-02 1.00000E-01
 -1       531 4.00000E-01 8.33333E-02 0.00000E+00
 -1       532 4.00000E-01 8.33333E-02 1.00000E-01
 -1       533 4.50000E-01 8.33333E-02 0.00000E+00
 -1       534 4.50000E-01 8.33333E-02 1.00000E-01
 -1       535 5.00000E-01 8.33333E-02 0.00000E+00
 -1       536 5.00000E-01 8.33333E-02 1.00000E-01
 -1       537 5.50000E-01 8.33333E-02 0.00000E+00
 -1       538 5.50000E-01 8.33333E-02 1.00000E-01
 -1       539 6.00000E-01 8.33333E-02 0.00000E+00
 -1       540 6.00000E-01 8.33333E-02 1.00000E-01
 -1       541 6.50000E-01 8.33333E-02 0.00000E+00
 -1       542 6.50000E-01 8.33333E-02 1.00000E-01
 -1       543 7.00000E-01 8.33333E-02 0.00000E+00
 -1       544 7.00000E-01 8.33333E-02 1.00000E-01
 -1       545 7.50000E-01 8.33333E-02 0.00000E+00
 -1       546 7.50000E-01 8.33333E-02 1.00000E-01
 -1       547 8.00000E-01 8.33333E-02 0.00000E+00
 -1       548 8.00000E-01 8.33333E-02 1.00000E-01
 -1       549 8.50000E-01 8.33333E-02 0.00000E+00
 -1       550 8.50000E-01 8.33333E-02 1.00000E-01
 -1       551 9.00000E-01 8.33333E-02 0.00000E+00
 -1       552 9.00000E-01 8.33333E-02 1.00000E-01
 -1       553 9.50000E-01 8.33333E-02 0.00000E+00
 -1       554 9.50000E-01 8.33333E-02 1.00000E-01
 -1       555 5.00000E-02 1.66667E-02 1.66667E-02
 -1       556 1.00000E-01 1.66667E-02 1.66667E-02
 -1       557 1.50000E-01 1.66667E-02 1.66667E-02
 -1       558 2.00000E-01 1.66667E-02 1.66667E-02
 -1       559 2.50000E-01 1.66667E-02 1.66667E-02
 -1       560 3.00000E-01 1.66667E-02 1.66667E-02
 -1       561 3.50000E-01 1.66667E-02 1.66667E-02
 -1       562 4.00000E-01 1.66667E-02 1.66667E-02
 -1       563 4.50000E-01 1.66667E-02 1.66667E-02
 -1       564 5.00000E-01 1.66667E-02 1.66667E-02
 -1       565 5.50000E-01 1.66667E-02 1.66667E-02
 -1       566 6.00000E-01 1.66667E-02 1.66667E-02
 -1       567 6.50000E-01 1.66667E-02 1.66667E-02
 -1       568 7.00000E-01 1.66667E-02 1.66667E-02
 -1       569 7.50000E-01 1.66667E-02 1.66667E-02
 -1       570 8.00000E-01 1.66667E-02 1.66667E-02
 -1       571 8.50000E-01 1.66667E-02 1.66667E-02
 -1       572 9.00000E-01 1.66667E-02 1.66667E-02
 -1       573 9.50000E-01 1.66667E-02 1.66667E-02
 -1       574 5.00000E-02 3.33333E-02 1.66667E-02
 -1       575 1.00000E-01 3.33333E-02 1.66667E-02
 -1       576 1.50000E-01 3.33333E-02 1.66667E-02
 -1       577 2.00000E-01 3.33333E-02 1.66667E-02
 -1       578 2.50000E-01 3.33333E-02 1.66667E-02
 -1       579 3.00000E-01 3.33333E-02 1.66667E-02
 -1       580 3.50000E-01 3.33333E-02 1.66667E-02